Position data for 1 colloid with interiorflag consisting of 3 points chosen from 4206-vertex extended sphere

3     atoms

2        atom types

-720    720      xlo xhi
-1140       1140      ylo yhi
-720       720      zlo zhi

Atoms

1 1  0.000000000000   0.000000000000   0.000000000000 1  1.0 0.0 0.5 0.5
2 2 -15.718375158430 -34.032698669410 -145.240173851390 1 0.0 1.0 0.0 0.0
3 2  20.035522167400 -36.177713605410 -144.186514244730 1 0.0 1.0 0.0 0.0
