Position data for 1 colloid with interiorflag consisting of 3 points chosen from 4206-vertex extended sphere

3     atoms

2        atom types

0       1440      xlo xhi
0       2280      ylo yhi
0       1440      zlo zhi

Atoms

1	1	720	240	720	1
2	2	704.28162484157	205.96730133059	574.75982614861	1
3	2	740.0355221674	203.82228639459	575.81348575527	1
